<?xml version="1.0"?>
<VTKFile type="UnstructuredGrid"  version="0.1"  >
<UnstructuredGrid>
<Piece  NumberOfPoints="1024" NumberOfCells="1922">
<Points>
<DataArray  type="Float64"  NumberOfComponents="3"  format="ascii">0 0 0  48387.09677419355 0 0  96774.19354838709 0 0  145161.2903225806 0 0  193548.3870967742 0 0  241935.4838709677 0 0  290322.5806451613 0 0  338709.6774193548 0 0  387096.7741935484 0 0  435483.8709677419 0 0  483870.9677419355 0 0  532258.0645161291 0 0  580645.1612903225 0 0  629032.2580645161 0 0  677419.3548387097 0 0  725806.4516129033 0 0  774193.5483870967 0 0  822580.6451612903 0 0  870967.7419354839 0 0  919354.8387096775 0 0  967741.9354838709 0 0  1016129.032258064 0 0  1064516.129032258 0 0  1112903.225806452 0 0  1161290.322580645 0 0  1209677.419354839 0 0  1258064.516129032 0 0  1306451.612903226 0 0  1354838.709677419 0 0  1403225.806451613 0 0  1451612.903225807 0 0  1500000 0 0  0 48387.09677419355 0  48387.09677419355 48387.09677419355 0  96774.19354838709 48387.09677419355 0  145161.2903225806 48387.09677419355 0  193548.3870967742 48387.09677419355 0  241935.4838709677 48387.09677419355 0  290322.5806451613 48387.09677419355 0  338709.6774193548 48387.09677419355 0  387096.7741935484 48387.09677419355 0  435483.8709677419 48387.09677419355 0  483870.9677419355 48387.09677419355 0  532258.0645161291 48387.09677419355 0  580645.1612903225 48387.09677419355 0  629032.2580645161 48387.09677419355 0  677419.3548387097 48387.09677419355 0  725806.4516129033 48387.09677419355 0  774193.5483870967 48387.09677419355 0  822580.6451612903 48387.09677419355 0  870967.7419354839 48387.09677419355 0  919354.8387096775 48387.09677419355 0  967741.9354838709 48387.09677419355 0  1016129.032258064 48387.09677419355 0  1064516.129032258 48387.09677419355 0  1112903.225806452 48387.09677419355 0  1161290.322580645 48387.09677419355 0  1209677.419354839 48387.09677419355 0  1258064.516129032 48387.09677419355 0  1306451.612903226 48387.09677419355 0  1354838.709677419 48387.09677419355 0  1403225.806451613 48387.09677419355 0  1451612.903225807 48387.09677419355 0  1500000 48387.09677419355 0  0 96774.19354838709 0  48387.09677419355 96774.19354838709 0  96774.19354838709 96774.19354838709 0  145161.2903225806 96774.19354838709 0  193548.3870967742 96774.19354838709 0  241935.4838709677 96774.19354838709 0  290322.5806451613 96774.19354838709 0  338709.6774193548 96774.19354838709 0  387096.7741935484 96774.19354838709 0  435483.8709677419 96774.19354838709 0  483870.9677419355 96774.19354838709 0  532258.0645161291 96774.19354838709 0  580645.1612903225 96774.19354838709 0  629032.2580645161 96774.19354838709 0  677419.3548387097 96774.19354838709 0  725806.4516129033 96774.19354838709 0  774193.5483870967 96774.19354838709 0  822580.6451612903 96774.19354838709 0  870967.7419354839 96774.19354838709 0  919354.8387096775 96774.19354838709 0  967741.9354838709 96774.19354838709 0  1016129.032258064 96774.19354838709 0  1064516.129032258 96774.19354838709 0  1112903.225806452 96774.19354838709 0  1161290.322580645 96774.19354838709 0  1209677.419354839 96774.19354838709 0  1258064.516129032 96774.19354838709 0  1306451.612903226 96774.19354838709 0  1354838.709677419 96774.19354838709 0  1403225.806451613 96774.19354838709 0  1451612.903225807 96774.19354838709 0  1500000 96774.19354838709 0  0 145161.2903225806 0  48387.09677419355 145161.2903225806 0  96774.19354838709 145161.2903225806 0  145161.2903225806 145161.2903225806 0  193548.3870967742 145161.2903225806 0  241935.4838709677 145161.2903225806 0  290322.5806451613 145161.2903225806 0  338709.6774193548 145161.2903225806 0  387096.7741935484 145161.2903225806 0  435483.8709677419 145161.2903225806 0  483870.9677419355 145161.2903225806 0  532258.0645161291 145161.2903225806 0  580645.1612903225 145161.2903225806 0  629032.2580645161 145161.2903225806 0  677419.3548387097 145161.2903225806 0  725806.4516129033 145161.2903225806 0  774193.5483870967 145161.2903225806 0  822580.6451612903 145161.2903225806 0  870967.7419354839 145161.2903225806 0  919354.8387096775 145161.2903225806 0  967741.9354838709 145161.2903225806 0  1016129.032258064 145161.2903225806 0  1064516.129032258 145161.2903225806 0  1112903.225806452 145161.2903225806 0  1161290.322580645 145161.2903225806 0  1209677.419354839 145161.2903225806 0  1258064.516129032 145161.2903225806 0  1306451.612903226 145161.2903225806 0  1354838.709677419 145161.2903225806 0  1403225.806451613 145161.2903225806 0  1451612.903225807 145161.2903225806 0  1500000 145161.2903225806 0  0 193548.3870967742 0  48387.09677419355 193548.3870967742 0  96774.19354838709 193548.3870967742 0  145161.2903225806 193548.3870967742 0  193548.3870967742 193548.3870967742 0  241935.4838709677 193548.3870967742 0  290322.5806451613 193548.3870967742 0  338709.6774193548 193548.3870967742 0  387096.7741935484 193548.3870967742 0  435483.8709677419 193548.3870967742 0  483870.9677419355 193548.3870967742 0  532258.0645161291 193548.3870967742 0  580645.1612903225 193548.3870967742 0  629032.2580645161 193548.3870967742 0  677419.3548387097 193548.3870967742 0  725806.4516129033 193548.3870967742 0  774193.5483870967 193548.3870967742 0  822580.6451612903 193548.3870967742 0  870967.7419354839 193548.3870967742 0  919354.8387096775 193548.3870967742 0  967741.9354838709 193548.3870967742 0  1016129.032258064 193548.3870967742 0  1064516.129032258 193548.3870967742 0  1112903.225806452 193548.3870967742 0  1161290.322580645 193548.3870967742 0  1209677.419354839 193548.3870967742 0  1258064.516129032 193548.3870967742 0  1306451.612903226 193548.3870967742 0  1354838.709677419 193548.3870967742 0  1403225.806451613 193548.3870967742 0  1451612.903225807 193548.3870967742 0  1500000 193548.3870967742 0  0 241935.4838709677 0  48387.09677419355 241935.4838709677 0  96774.19354838709 241935.4838709677 0  145161.2903225806 241935.4838709677 0  193548.3870967742 241935.4838709677 0  241935.4838709677 241935.4838709677 0  290322.5806451613 241935.4838709677 0  338709.6774193548 241935.4838709677 0  387096.7741935484 241935.4838709677 0  435483.8709677419 241935.4838709677 0  483870.9677419355 241935.4838709677 0  532258.0645161291 241935.4838709677 0  580645.1612903225 241935.4838709677 0  629032.2580645161 241935.4838709677 0  677419.3548387097 241935.4838709677 0  725806.4516129033 241935.4838709677 0  774193.5483870967 241935.4838709677 0  822580.6451612903 241935.4838709677 0  870967.7419354839 241935.4838709677 0  919354.8387096775 241935.4838709677 0  967741.9354838709 241935.4838709677 0  1016129.032258064 241935.4838709677 0  1064516.129032258 241935.4838709677 0  1112903.225806452 241935.4838709677 0  1161290.322580645 241935.4838709677 0  1209677.419354839 241935.4838709677 0  1258064.516129032 241935.4838709677 0  1306451.612903226 241935.4838709677 0  1354838.709677419 241935.4838709677 0  1403225.806451613 241935.4838709677 0  1451612.903225807 241935.4838709677 0  1500000 241935.4838709677 0  0 290322.5806451613 0  48387.09677419355 290322.5806451613 0  96774.19354838709 290322.5806451613 0  145161.2903225806 290322.5806451613 0  193548.3870967742 290322.5806451613 0  241935.4838709677 290322.5806451613 0  290322.5806451613 290322.5806451613 0  338709.6774193548 290322.5806451613 0  387096.7741935484 290322.5806451613 0  435483.8709677419 290322.5806451613 0  483870.9677419355 290322.5806451613 0  532258.0645161291 290322.5806451613 0  580645.1612903225 290322.5806451613 0  629032.2580645161 290322.5806451613 0  677419.3548387097 290322.5806451613 0  725806.4516129033 290322.5806451613 0  774193.5483870967 290322.5806451613 0  822580.6451612903 290322.5806451613 0  870967.7419354839 290322.5806451613 0  919354.8387096775 290322.5806451613 0  967741.9354838709 290322.5806451613 0  1016129.032258064 290322.5806451613 0  1064516.129032258 290322.5806451613 0  1112903.225806452 290322.5806451613 0  1161290.322580645 290322.5806451613 0  1209677.419354839 290322.5806451613 0  1258064.516129032 290322.5806451613 0  1306451.612903226 290322.5806451613 0  1354838.709677419 290322.5806451613 0  1403225.806451613 290322.5806451613 0  1451612.903225807 290322.5806451613 0  1500000 290322.5806451613 0  0 338709.6774193548 0  48387.09677419355 338709.6774193548 0  96774.19354838709 338709.6774193548 0  145161.2903225806 338709.6774193548 0  193548.3870967742 338709.6774193548 0  241935.4838709677 338709.6774193548 0  290322.5806451613 338709.6774193548 0  338709.6774193548 338709.6774193548 0  387096.7741935484 338709.6774193548 0  435483.8709677419 338709.6774193548 0  483870.9677419355 338709.6774193548 0  532258.0645161291 338709.6774193548 0  580645.1612903225 338709.6774193548 0  629032.2580645161 338709.6774193548 0  677419.3548387097 338709.6774193548 0  725806.4516129033 338709.6774193548 0  774193.5483870967 338709.6774193548 0  822580.6451612903 338709.6774193548 0  870967.7419354839 338709.6774193548 0  919354.8387096775 338709.6774193548 0  967741.9354838709 338709.6774193548 0  1016129.032258064 338709.6774193548 0  1064516.129032258 338709.6774193548 0  1112903.225806452 338709.6774193548 0  1161290.322580645 338709.6774193548 0  1209677.419354839 338709.6774193548 0  1258064.516129032 338709.6774193548 0  1306451.612903226 338709.6774193548 0  1354838.709677419 338709.6774193548 0  1403225.806451613 338709.6774193548 0  1451612.903225807 338709.6774193548 0  1500000 338709.6774193548 0  0 387096.7741935484 0  48387.09677419355 387096.7741935484 0  96774.19354838709 387096.7741935484 0  145161.2903225806 387096.7741935484 0  193548.3870967742 387096.7741935484 0  241935.4838709677 387096.7741935484 0  290322.5806451613 387096.7741935484 0  338709.6774193548 387096.7741935484 0  387096.7741935484 387096.7741935484 0  435483.8709677419 387096.7741935484 0  483870.9677419355 387096.7741935484 0  532258.0645161291 387096.7741935484 0  580645.1612903225 387096.7741935484 0  629032.2580645161 387096.
[...]
<PointData  Scalars="f_594"> 
<DataArray  type="Float64"  Name="f_594"  format="ascii">0.0000000000000000e+00  0.0000000000000000e+00  0.0000000000000000e+00  0.0000000000000000e+00  0.0000000000000000e+00  0.0000000000000000e+00  0.0000000000000000e+00  0.0000000000000000e+00  0.0000000000000000e+00  0.0000000000000000e+00  0.0000000000000000e+00  0.0000000000000000e+00  0.0000000000000000e+00  0.0000000000000000e+00  0.0000000000000000e+00  0.0000000000000000e+00  0.0000000000000000e+00  0.0000000000000000e+00  0.0000000000000000e+00  0.0000000000000000e+00  0.0000000000000000e+00  0.0000000000000000e+00  0.0000000000000000e+00  0.0000000000000000e+00  0.0000000000000000e+00  0.0000000000000000e+00  0.0000000000000000e+00  0.0000000000000000e+00  0.0000000000000000e+00  0.0000000000000000e+00  0.0000000000000000e+00  0.0000000000000000e+00  0.0000000000000000e+00  0.0000000000000000e+00  0.0000000000000000e+00  0.0000000000000000e+00  0.0000000000000000e+00  0.0000000000000000e+00  0.0000000000000000e+00  0.0000000000000000e+00  0.0000000000000000e+00  0.0000000000000000e+00  0.0000000000000000e+00  0.0000000000000000e+00  0.0000000000000000e+00  0.0000000000000000e+00  0.0000000000000000e+00  0.0000000000000000e+00  0.0000000000000000e+00  0.0000000000000000e+00  0.0000000000000000e+00  0.0000000000000000e+00  0.0000000000000000e+00  0.0000000000000000e+00  0.0000000000000000e+00  0.0000000000000000e+00  0.0000000000000000e+00  0.0000000000000000e+00  0.0000000000000000e+00  0.0000000000000000e+00  0.0000000000000000e+00  0.0000000000000000e+00  0.0000000000000000e+00  0.0000000000000000e+00  0.0000000000000000e+00  0.0000000000000000e+00  0.0000000000000000e+00  0.0000000000000000e+00  0.0000000000000000e+00  0.0000000000000000e+00  0.0000000000000000e+00  0.0000000000000000e+00  0.0000000000000000e+00  0.0000000000000000e+00  0.0000000000000000e+00  0.0000000000000000e+00  0.0000000000000000e+00  0.0000000000000000e+00  0.0000000000000000e+00  0.0000000000000000e+00  0.0000000000000000e+00  0.0000000000000000e+00  0.0000000000000000e+00  0.0000000000000000e+00  0.0000000000000000e+00  0.0000000000000000e+00  0.0000000000000000e+00  0.0000000000000000e+00  0.0000000000000000e+00  0.0000000000000000e+00  0.0000000000000000e+00  0.0000000000000000e+00  0.0000000000000000e+00  0.0000000000000000e+00  0.0000000000000000e+00  0.0000000000000000e+00  0.0000000000000000e+00  0.0000000000000000e+00  0.0000000000000000e+00  0.0000000000000000e+00  0.0000000000000000e+00  0.0000000000000000e+00  0.0000000000000000e+00  0.0000000000000000e+00  0.0000000000000000e+00  0.0000000000000000e+00  0.0000000000000000e+00  0.0000000000000000e+00  0.0000000000000000e+00  0.0000000000000000e+00  0.0000000000000000e+00  0.0000000000000000e+00  0.0000000000000000e+00  0.0000000000000000e+00  0.0000000000000000e+00  0.0000000000000000e+00  0.0000000000000000e+00  0.0000000000000000e+00  0.0000000000000000e+00  0.0000000000000000e+00  0.0000000000000000e+00  0.0000000000000000e+00  0.0000000000000000e+00  0.0000000000000000e+00  0.0000000000000000e+00  0.0000000000000000e+00  0.0000000000000000e+00  0.0000000000000000e+00  0.0000000000000000e+00  0.0000000000000000e+00  0.0000000000000000e+00  0.0000000000000000e+00  0.0000000000000000e+00  0.0000000000000000e+00  0.0000000000000000e+00  0.0000000000000000e+00  0.0000000000000000e+00  0.0000000000000000e+00  0.0000000000000000e+00  0.0000000000000000e+00  0.0000000000000000e+00  0.0000000000000000e+00  5.7767434371950749e+01  1.8986015023176640e+02  1.8412532296429137e+02  4.5173774421396566e+01  0.0000000000000000e+00  0.0000000000000000e+00  0.0000000000000000e+00  0.0000000000000000e+00  0.0000000000000000e+00  0.0000000000000000e+00  0.0000000000000000e+00  0.0000000000000000e+00  0.0000000000000000e+00  0.0000000000000000e+00  0.0000000000000000e+00  0.0000000000000000e+00  0.0000000000000000e+00  0.0000000000000000e+00  0.0000000000000000e+00  0.0000000000000000e+00  0.0000000000000000e+00  0.0000000000000000e+00  0.0000000000000000e+00  0.0000000000000000e+00  0.0000000000000000e+00  0.0000000000000000e+00  0.0000000000000000e+00  0.0000000000000000e+00  0.0000000000000000e+00  4.9074066234615810e+02  8.1417122763466693e+02  9.5657592689763828e+02  1.0333450536957178e+03  1.0851184343656878e+03  1.0911783190195299e+03  1.0530077880320657e+03  9.9504808241946216e+02  8.7010203231593846e+02  5.6408257368386057e+02  0.0000000000000000e+00  0.0000000000000000e+00  0.0000000000000000e+00  0.0000000000000000e+00  0.0000000000000000e+00  0.0000000000000000e+00  0.0000000000000000e+00  0.0000000000000000e+00  0.0000000000000000e+00  0.0000000000000000e+00  0.0000000000000000e+00  0.0000000000000000e+00  0.0000000000000000e+00  0.0000000000000000e+00  0.0000000000000000e+00  0.0000000000000000e+00  0.0000000000000000e+00  0.0000000000000000e+00  0.0000000000000000e+00  0.0000000000000000e+00  3.7362406815620426e+02  8.4839789738200864e+02  1.1224035480661578e+03  1.3077851704854129e+03  1.4226497518443750e+03  1.4897429151873134e+03  1.5267725010706097e+03  1.5316416315177462e+03  1.5049159778749747e+03  1.4503020995089416e+03  1.3493032866476547e+03  1.1787291306433451e+03  9.3324533896293462e+02  5.0089661801813105e+02  0.0000000000000000e+00  0.0000000000000000e+00  0.0000000000000000e+00  0.0000000000000000e+00  0.0000000000000000e+00  0.0000000000000000e+00  0.0000000000000000e+00  0.0000000000000000e+00  0.0000000000000000e+00  0.0000000000000000e+00  0.0000000000000000e+00  0.0000000000000000e+00  0.0000000000000000e+00  0.0000000000000000e+00  0.0000000000000000e+00  0.0000000000000000e+00  0.0000000000000000e+00  5.8597485616998188e+02  1.0216207322769426e+03  1.3007651102444725e+03  1.5012715655585303e+03  1.6458720762342887e+03  1.7442237566896265e+03  1.8050792111561184e+03  1.8370122507056751e+03  1.8413105411352587e+03  1.8181765880694563e+03  1.7670745024378455e+03  1.6786535411427612e+03  1.5441123184062485e+03  1.3598908774611882e+03  1.1012551992211861e+03  7.1842669829828174e+02  0.0000000000000000e+00  0.0000000000000000e+00  0.0000000000000000e+00  0.0000000000000000e+00  0.0000000000000000e+00  0.0000000000000000e+00  0.0000000000000000e+00  0.0000000000000000e+00  0.0000000000000000e+00  0.0000000000000000e+00  0.0000000000000000e+00  0.0000000000000000e+00  0.0000000000000000e+00  0.0000000000000000e+00  0.0000000000000000e+00  5.8597485616998188e+02  1.0796180001719356e+03  1.3862416666019183e+03  1.6089708090150611e+03  1.7767609899729628e+03  1.9023517699308325e+03  1.9902431189789258e+03  2.0463279943082548e+03  2.0755350897511953e+03  2.0794649626963555e+03  2.0581122725779705e+03  2.0101099560513674e+03  1.9300770586196943e+03  1.8125651150994897e+03  1.6544549983242568e+03  1.4442516467860914e+03  1.1591057195377398e+03  7.1842669829828264e+02  0.0000000000000000e+00  0.0000000000000000e+00  0.0000000000000000e+00  0.0000000000000000e+00  0.0000000000000000e+00  0.0000000000000000e+00  0.0000000000000000e+00  0.0000000000000000e+00  0.0000000000000000e+00  0.0000000000000000e+00  0.0000000000000000e+00  0.0000000000000000e+00  0.0000000000000000e+00  3.7362406815620443e+02  1.0216207322769426e+03  1.3862416666019183e+03  1.6447150157583296e+03  1.8399522685488073e+03  1.9896414735765668e+03  2.1034199379727788e+03  2.1858413929041412e+03  2.2396454798281916e+03  2.2677428644644797e+03  2.2713582536843719e+03  2.2502977942122402e+03  2.2033321572458799e+03  2.1276096722329976e+03  2.0201926136033098e+03  1.8772705659860064e+03  1.6902296848258395e+03  1.4442516467860921e+03  1.1012551992211877e+03  5.0089661801813224e+02  0.0000000000000000e+00  0.0000000000000000e+00  0.0000000000000000e+00  0.0000000000000000e+00  0.0000000000000000e+00  0.0000000000000000e+00  0.0000000000000000e+00  0.0000000000000000e+00  0.0000000000000000e+00  0.0000000000000000e+00  0.0000000000000000e+00  0.0000000000000000e+00  8.4839789738200864e+02  1.3007651102444725e+03  1.6089708090150611e+03  1.8399522685488073e+03  2.0184126195853521e+03  2.1578702801337954e+03  2.2658447092647129e+03  2.3458960897531247e+03  2.3994927286690054e+03  2.4277423286007515e+03  2.4311817958665297e+03  2.4093526218470884e+03  2.3615898010709429e+03  2.2868237760242960e+03  2.1838257441980359e+03  2.0496999116174547e+03  1.8772705659860057e+03  1.6544549983242566e+03  1.3598908774611884e+03  9.3324533896293383e+02  0.0000000000000000e+00  0.0000000000000000e+00  0.0000000000000000e+00  0.0000000000000000e+00  0.0000000000000000e+00  0.0000000000000000e+00  0.0000000000000000e+00  0.0000000000000000e+00  0.0000000000000000e+00  0.0000000000000000e+00  0.0000000000000000e+00  4.9074066234615805e+02  1.1224035480661578e+03  1.5012715655585303e+03  1.7767609899729628e+03  1.9896414735765668e+03  2.1578702801337954e+03  2.2922101021700487e+03  2.3983909446887742e+03  2.4788273289740832e+03  2.5339071075469751e+03  2.5633687879163385e+03  2.5667347429066699e+03  2.5430837712416487e+03  2.4928194815293618e+03  2.4165099177831648e+03  2.3141416043431886e+03  2.1838257441980359e+03  2.0201926136033094e+03  1.8125651150994897e+03  1.5441123184062490e+03  1.1787291306433449e+03  5.6408257368386137e+02  0.0000000000000000e+00  0.0000000000000000e+00  0.0000000000000000e+00  0.0000000000000000e+00  0.0000000000000000e+00  0.0000000000000000e+00  0.0000000000000000e+00  0.0000000000000000e+00  0.0000000000000000e+00  0.0000000000000000e+00  8.1417122763466693e+02  1.3077851704854129e+03  1.6458720762342887e+03  1.9023517699308325e+03  2.1034199379727788e+03  2.2658447092647129e+03  2.3983909446887742e+03  2.5055119358038046e+03  2.5886192084620852e+03  2.6470146459477510e+03  2.6789226726698257e+03  2.6822863839032716e+03  2.6553780155873892e+03  2.6007293503971127e+03  2.5207655129330483e+03  2.4165099177831648e+03  2.2868237760242964e+03  2.1276096722329971e+03  1.9300770586196945e+03  1.6786535411427617e+03  1.3493032866476542e+03  8.7010203231593880e+02  0.0000000000000000e+00  0.0000000000000000e+00  0.0000000000000000e+00  0.0000000000000000e+00  0.0000000000000000e+00  0.0000000000000000e+00  0.0000000000000000e+00  0.0000000000000000e+00  0.0000000000000000e+00  0.0000000000000000e+00  9.5657592689763828e+02  1.4226497518443750e+03  1.7442237566896265e+03  1.9902431189789258e+03  2.1858413929041412e+03  2.3458960897531247e+03  2.4788273289740832e+03  2.5886192084620852e+03  2.6763605072507876e+03  2.7403024958360497e+03  2.7764701989318551e+03  2.7797881263351005e+03  2.7473689663946575e+03  2.6861665586930658e+03  2.6007293503971127e+03  2.4928194815293618e+03  2.3615898010709429e+03  2.2033321572458794e+03  2.0101099560513676e+03  1.7670745024378457e+03  1.4503020995089412e+03  9.9504808241946216e+02  0.0000000000000000e+00  0.0000000000000000e+00  0.0000000000000000e+00  0.0000000000000000e+00  0.0000000000000000e+00  0.0000000000000000e+00  0.0000000000000000e+00  0.0000000000000000e+00  0.0000000000000000e+00  5.7767434371951055e+01  1.0333450536957178e+03  1.4897429151873134e+03  1.8050792111561184e+03  2.0463279943082548e+03  2.2396454798281916e+03  2.3994927286690054e+03  2.5339071075469751e+03  2.6470146459477510e+03  2.7403024958360497e+03  2.8123520153528152e+03  2.8559603050184351e+03  2.8586710440993243e+03  2.8172449781481314e+03  2.7473689663946575e+03  2.6553780155873892e+03  2.5430837712416487e+03  2.4093526218470888e+03  2.2502977942122398e+03  2.0581122725779705e+03  1.8181765880694566e+03  1.5049159778749743e+03  1.0530077880320659e+03  4.5173774421399358e+01  0.0000000000000000e+00  0.0000000000000000e+00  0.0000000000000000e+00  0.0000000000000000e+00  0.0000000000000000e+00  0.0000000000000000e+00  0.0000000000000000e+00  0.0000000000000000e+00  1.8986015023176654e+02  1.0851184343656878e+03  1.5267725010706097e+03  1.8370122507056751e+03  2.0755350897511953e+03  2.2677428644644797e+03  2.4277423286007515e+03  2.5633687879163385e+03  2.6789226726698257e+03  2.7764701989318551e+03  2.8559603050184351e+03  2.9133144972848831e+03  2.9131446547246815e+03  2.8586710440993243e+03  2.7797881263351005e+03  2.6822863839032716e+03  2.5667347429066704e+03  2.4311817958665297e+03  2.2713582536843714e+03  2.0794649626963555e+03  1.8413105411352590e+03  1.5316416315177460e+03  1.0911783190195301e+03  1.8412532296429453e+02  0.0000000000000000e+00  0.0000000000000000e+00  0.0000000000000000e+00  0.0000000000000000e+00  0.0000000000000000e+00  0.0000000000000000e+00  0.0000000000000000e+00  0.0000000000000000e+00  1.8412532296429137e+02  1.0911783190195299e+03  1.5316416315177462e+03  1.8413105411352587e+03  2.0794649626963555e+03  2.2713582536843719e+03  2.4311817958665297e+03  2.5667347429066699e+03  2.6822863839032716e+03  2.7797881263351005e+03  2.8586710440993243e+03  2.9131446547246815e+03  2.9133144972848831e+03  2.8559603050184351e+03  2.7764701989318551e+03  2.6789226726698262e+03  2.5633687879163385e+03  2.4277423286007515e+03  2.2677428644644792e+03  2.0755350897511953e+03  1.8370122507056756e+03  1.5267725010706092e+03  1.0851184343656882e+03  1.8986015023176967e+02  0.0000000000000000e+00  0.0000000000000000e+00  0.0000000000000000e+00  0.0000000000000000e+00  0.0000000000000000e+00  0.0000000000000000e+00  0.0000000000000000e+00  0.0000000000000000e+00  4.5173774421396445e+01  1.0530077880320657e+03  1.5049159778749747e+03  1.8181765880694563e+03  2.0581122725779705e+03  2.2502977942122402e+03  2.4093526218470884e+03  2.5430837712416487e+03  2.6553780155873892e+03  2.7473689663946575e+03  2.8172449781481314e+03  2.8586710440993243e+03  2.8559603050184351e+03  2.8123520153528152e+03  2.7403024958360502e+03  2.6470146459477510e+03  2.5339071075469751e+03  2.3994927286690054e+03  2.2396454798281911e+03  2.0463279943082548e+03  1.8050792111561188e+03  1.4897429151873130e+03  1.0333450536957182e+03  5.7767434371954081e+01  0.0000000000000000e+00  0.0000000000000000e+00  0.0000000000000000e+00  0.0000000000000000e+00  0.0000000000000000e+00  0.0000000000000000e+00  0.0000000000000000e+00  0.0000000000000000e+00  0.0000000000000000e+00  9.9504808241946228e+02  1.4503020995089416e+03  1.7670745024378455e+03  2.0101099560513676e+03  2.2033321572458799e+03  2.3615898010709429e+03  2.4928194815293618e+03  2.6007293503971127e+03  2.6861665586930658e+03  2.7473689663946575e+03  2.7797881263351005e+03  2.7764701989318551e+03  2.7403024958360502e+03  2.6763605072507876e+03  2.5886192084620852e+03  2.4788273289740832e+03  2.3458960897531247e+03  2.1858413929041408e+03  1.9902431189789258e+03  1.7442237566896270e+03  1.4226497518443746e+03  9.5657592689763817e+02  0.0000000000000000e+00  0.0000000000000000e+00  0.0000000000000000e+00  0.0000000000000000e+00  0.0000000000000000e+00  0.0000000000000000e+00  0.0000000000000000e+00  0.0000000000000000e+00  0.0000000000000000e+00  0.0000000000000000e+00  8.7010203231593846e+02  1.3493032866476547e+03  1.6786535411427612e+03  1.9300770586196943e+03  2.1276096722329976e+03  2.2868237760242960e+03  2.4165099177831648e+03  2.5207655129330483e+03  2.6007293503971132e+03  2.6553780155873892e+03  2.6822863839032716e+03  2.6789226726698257e+03  2.6470146459477510e+03  2.5886192084620852e+03  2.5055119358038046e+03  2.3983909446887742e+03  2.2658447092647134e+03  2.1034199379727784e+03  1.9023517699308325e+03  1.6458720762342891e+03  1.3077851704854124e+03  8.1417122763466716e+02  0.0000000000000000e+00  0.0000000000000000e+00  0.0000000000000000e+00  0.0000000000000000e+00  0.0000000000000000e+00  0.0000000000000000e+00  0.0000000000000000e+00  0.0000000000000000e+00  0.0000000000000000e+00  0.0000000000000000e+00  5.6408257368386057e+02  1.1787291306433451e+03  1.5441123184062485e+03  1.8125651150994897e+03  2.0201926136033098e+03  2.1838257441980359e+03  2.3141416043431886e+03  2.4165099177831648e+03  2.4928194815293618e+03  2.5430837712416487e+03  2.5667347429066699e+03  2.5633687879163385e+03  2.5339071075469751e+03  2.4788273289740832e+03  2.3983909446887742e+03  2.2922101021700487e+03  2.1578702801337959e+03  1.9896414735765663e+03  1.7767609899729628e+03  1.5012715655585305e+03  1.1224035480661573e+03  4.9074066234615867e+02  0.0000000000000000e+00  0.0000000000000000e+00  0.0000000000000000e+00  0.0000000000000000e+00  0.0000000000000000e+00  0.0000000000000000e+00  0.0000000000000000e+00  0.0000000000000000e+00  0.0000000000000000e+00  0.0000000000000000e+00  0.0000000000000000e+00  9.3324533896293462e+02  1.3598908774611882e+03  1.6544549983242568e+03  1.8772705659860064e+03  2.0496999116174547e+03  2.1838257441980359e+03  2.2868237760242964e+03  2.3615898010709429e+03  2.4093526218470888e+03  2.4311817958665297e+03  2.4277423286007515e+03  2.3994927286690054e+03  2.3458960897531247e+03  2.2658447092647134e+03  2.1578702801337959e+03  2.0184126195853526e+03  1.8399522685488071e+03  1.6089708090150614e+03  1.3007651102444731e+03  8.4839789738200807e+02  0.0000000000000000e+00  0.0000000000000000e+00  0.0000000000000000e+00  0.0000000000000000e+00  0.0000000000000000e+00  0.0000000000000000e+00  0.0000000000000000e+00  0.0000000000000000e+00  0.0000000000000000e+00  0.0000000000000000e+00  0.0000000000000000e+00  0.0000000000000000e+00  5.0089661801813111e+02  1.1012551992211861e+03  1.4442516467860914e+03  1.6902296848258395e+03  1.8772705659860057e+03  2.0201926136033094e+03  2.1276096722329971e+03  2.2033321572458794e+03  2.2502977942122398e+03  2.2713582536843714e+03  2.2677428644644792e+03  2.2396454798281911e+03  2.1858413929041408e+03  2.1034199379727784e+03  1.9896414735765663e+03  1.8399522685488071e+03  1.6447150157583285e+03  1.3862416666019176e+03  1.0216207322769421e+03  3.7362406815620267e+02  0.0000000000000000e+00  0.0000000000000000e+00  0.0000000000000000e+00  0.0000000000000000e+00  0.0000000000000000e+00  0.0000000000000000e+00  0.0000000000000000e+00  0.0000000000000000e+00  0.0000000000000000e+00  0.0000000000000000e+00  0.0000000000000000e+00  0.0000000000000000e+00  0.0000000000000000e+00  7.1842669829828174e+02  1.1591057195377398e+03  1.4442516467860921e+03  1.6544549983242566e+03  1.8125651150994897e+03  1.9300770586196945e+03  2.0101099560513676e+03  2.0581122725779705e+03  2.0794649626963555e+03  2.0755350897511953e+03  2.0463279943082548e+03  1.9902431189789258e+03  1.9023517699308325e+03  1.7767609899729628e+03  1.6089708090150614e+03  1.3862416666019176e+03  1.0796180001719351e+03  5.8597485616998176e+02  0.0000000000000000e+00  0.0000000000000000e+00  0.0000000000000000e+00  0.0000000000000000e+00  0.0000000000000000e+00  0.0000000000000000e+00  0.0000000000000000e+00  0.0000000000000000e+00  0.0000000000000000e+00  0.0000000000000000e+00  0.0000000000000000e+00  0.0000000000000000e+00  0.0000000000000000e+00  0.0000000000000000e+00  0.0000000000000000e+00  7.1842669829828276e+02  1.1012551992211877e+03  1.3598908774611884e+03  1.5441123184062490e+03  1.6786535411427617e+03  1.7670745024378457e+03  1.8181765880694566e+03  1.8413105411352590e+03  1.8370122507056756e+03  1.8050792111561188e+03  1.7442237566896270e+03  1.6458720762342891e+03  1.5012715655585305e+03  1.3007651102444731e+03  1.0216207322769421e+03  5.8597485616998176e+02  0.0000000000000000e+00  0.0000000000000000e+00  0.0000000000000000e+00  0.0000000000000000e+00  0.0000000000000000e+00  0.0000000000000000e+00  0.0000000000000000e+00  0.0000000000000000e+00  0.0000000000000000e+00  0.0000000000000000e+00  0.0000000000000000e+00  0.0000000000000000e+00  0.0000000000000000e+00  0.0000000000000000e+00  0.0000000000000000e+00  0.0000000000000000e+00  0.0000000000000000e+00  5.0089661801813224e+02  9.3324533896293383e+02  1.1787291306433449e+03  1.3493032866476542e+03  1.4503020995089412e+03  1.5049159778749743e+03  1.5316416315177457e+03  1.5267725010706092e+03  1.4897429151873130e+03  1.4226497518443746e+03  1.3077851704854124e+03  1.1224035480661573e+03  8.4839789738200818e+02  3.7362406815620244e+02  0.0000000000000000e+00  0.0000000000000000e+00  0.0000000000000000e+00  0.0000000000000000e+00  0.0000000000000000e+00  0.0000000000000000e+00  0.000000000000000