<?xml version="1.0"?>
<VTKFile type="UnstructuredGrid"  version="0.1"  >
<UnstructuredGrid>
<Piece  NumberOfPoints="101" NumberOfCells="100">
<Points>
<DataArray  type="Float64"  NumberOfComponents="3"  format="ascii">0 0 0  15000 0 0  30000 0 0  45000 0 0  60000 0 0  75000 0 0  90000 0 0  105000 0 0  120000 0 0  135000 0 0  150000 0 0  165000 0 0  180000 0 0  195000 0 0  210000 0 0  225000 0 0  240000 0 0  255000 0 0  270000 0 0  285000 0 0  300000 0 0  315000 0 0  330000 0 0  345000 0 0  360000 0 0  375000 0 0  390000 0 0  405000 0 0  420000 0 0  435000 0 0  450000 0 0  465000 0 0  480000 0 0  495000 0 0  510000 0 0  525000 0 0  540000 0 0  555000 0 0  570000 0 0  585000 0 0  600000 0 0  615000 0 0  630000 0 0  645000 0 0  660000 0 0  675000 0 0  690000 0 0  705000 0 0  720000 0 0  735000 0 0  750000 0 0  765000 0 0  780000 0 0  795000 0 0  810000 0 0  825000 0 0  840000 0 0  855000 0 0  870000 0 0  885000 0 0  900000 0 0  915000 0 0  930000 0 0  945000 0 0  960000 0 0  975000 0 0  990000 0 0  1005000 0 0  1020000 0 0  1035000 0 0  1050000 0 0  1065000 0 0  1080000 0 0  1095000 0 0  1110000 0 0  1125000 0 0  1140000 0 0  1155000 0 0  1170000 0 0  1185000 0 0  1200000 0 0  1215000 0 0  1230000 0 0  1245000 0 0  1260000 0 0  1275000 0 0  1290000 0 0  1305000 0 0  1320000 0 0  1335000 0 0  1350000 0 0  1365000 0 0  1380000 0 0  1395000 0 0  1410000 0 0  1425000 0 0  1440000 0 0  1455000 0 0  1470000 0 0  1485000 0 0  1500000 0 0  </DataArray>
</Points>
<Cells>
<DataArray  type="UInt32"  Name="connectivity"  format="ascii">0 1  1 2  2 3  3 4  4 5  5 6  6 7  7 8  8 9  9 10  10 11  11 12  12 13  13 14  14 15  15 16  16 17  17 18  18 19  19 20  20 21  21 22  22 23  23 24  24 25  25 26  26 27  27 28  28 29  29 30  30 31  31 32  32 33  33 34  34 35  35 36  36 37  37 38  38 39  39 40  40 41  41 42  42 43  43 44  44 45  45 46  46 47  47 48  48 49  49 50  50 51  51 52  52 53  53 54  54 55  55 56  56 57  57 58  58 59  59 60  60 61  61 62  62 63  63 64  64 65  65 66  66 67  67 68  68 69  69 70  70 71  71 72  72 73  73 74  74 75  75 76  76 77  77 78  78 79  79 80  80 81  81 82  82 83  83 84  84 85  85 86  86 87  87 88  88 89  89 90  90 91  91 92  92 93  93 94  94 95  95 96  96 97  97 98  98 99  99 100  </DataArray>
<DataArray  type="UInt32"  Name="offsets"  format="ascii">2 4 6 8 10 12 14 16 18 20 22 24 26 28 30 32 34 36 38 40 42 44 46 48 50 52 54 56 58 60 62 64 66 68 70 72 74 76 78 80 82 84 86 88 90 92 94 96 98 100 102 104 106 108 110 112 114 116 118 120 122 124 126 128 130 132 134 136 138 140 142 144 146 148 150 152 154 156 158 160 162 164 166 168 170 172 174 176 178 180 182 184 186 188 190 192 194 196 198 200 </DataArray>
<DataArray  type="UInt8"  Name="types"  format="ascii">3 3 3 3 3 3 3 3 3 3 3 3 3 3 3 3 3 3 3 3 3 3 3 3 3 3 3 3 3 3 3 3 3 3 3 3 3 3 3 3 3 3 3 3 3 3 3 3 3 3 3 3 3 3 3 3 3 3 3 3 3 3 3 3 3 3 3 3 3 3 3 3 3 3 3 3 3 3 3 3 3 3 3 3 3 3 3 3 3 3 3 3 3 3 3 3 3 3 3 3 </DataArray>
</Cells>
<PointData  Scalars="f_1316"> 
<DataArray  type="Float64"  Name="f_1316"  format="ascii">2.5000000000000000e+00  2.4624999999999995e+00  2.4250000000000003e+00  2.3874999999999997e+00  2.3500000000000001e+00  2.3124999999999996e+00  2.2749999999999999e+00  2.2374999999999998e+00  2.1999999999999997e+00  2.1624999999999996e+00  2.1250000000000004e+00  2.0874999999999999e+00  2.0499999999999998e+00  2.0124999999999997e+00  1.9749999999999999e+00  1.9375000000000002e+00  1.8999999999999999e+00  1.8624999999999996e+00  1.8250000000000002e+00  1.7874999999999994e+00  1.7500000000000002e+00  1.7124999999999999e+00  1.6750000000000000e+00  1.6375000000000000e+00  1.6000000000000003e+00  1.5625000000000000e+00  1.5249999999999999e+00  1.4875000000000000e+00  1.4499999999999997e+00  1.4124999999999999e+00  1.3749999999999996e+00  1.3375000000000004e+00  1.2999999999999998e+00  1.2625000000000000e+00  1.2249999999999999e+00  1.1875000000000002e+00  1.1499999999999999e+00  1.1125000000000005e+00  1.0749999999999995e+00  1.0375000000000003e+00  9.9999999999999978e-01  9.6250000000000002e-01  9.2499999999999982e-01  8.8749999999999984e-01  8.5000000000000053e-01  8.1249999999999978e-01  7.7500000000000024e-01  7.3749999999999982e-01  6.9999999999999996e-01  6.6250000000000009e-01  6.2500000000000000e-01  5.8749999999999980e-01  5.5000000000000027e-01  5.1250000000000007e-01  4.7500000000000014e-01  4.3750000000000006e-01  4.0000000000000008e-01  3.6249999999999982e-01  3.2500000000000012e-01  2.8749999999999992e-01  2.5000000000000022e-01  2.1250000000000027e-01  1.7500000000000016e-01  1.3750000000000012e-01  1.0000000000000005e-01  6.2500000000000056e-02  2.5000000000000029e-02  0.0000000000000000e+00  0.0000000000000000e+00  0.0000000000000000e+00  0.0000000000000000e+00  0.0000000000000000e+00  0.0000000000000000e+00  0.0000000000000000e+00  0.0000000000000000e+00  0.0000000000000000e+00  0.0000000000000000e+00  0.0000000000000000e+00  0.0000000000000000e+00  0.0000000000000000e+00  0.0000000000000000e+00  0.0000000000000000e+00  0.0000000000000000e+00  0.0000000000000000e+00  0.0000000000000000e+00  0.0000000000000000e+00  0.0000000000000000e+00  0.0000000000000000e+00  0.0000000000000000e+00  0.0000000000000000e+00  0.0000000000000000e+00  0.0000000000000000e+00  0.0000000000000000e+00  0.0000000000000000e+00  0.0000000000000000e+00  0.0000000000000000e+00  0.0000000000000000e+00  0.0000000000000000e+00  0.0000000000000000e+00  0.0000000000000000e+00  0.0000000000000000e+00  </DataArray> 
</PointData> 
</Piece>
</UnstructuredGrid>
</VTKFile>